version 3
run SlottedAloha2-0-20230204-20:04:23-3968
attr configname SlottedAloha2
attr datetime 20230204-20:04:23
attr datetimef 20230204-200423
attr experiment SlottedAloha2
attr inifile omnetpp.ini
attr iterationvars ""
attr iterationvarsd ""
attr iterationvarsf ""
attr measurement ""
attr network Aloha
attr processid 3968
attr repetition 0
attr replication #0
attr resultdir results
attr runnumber 0
attr seedset 0
config description "slotted Aloha, optimal load"
config Aloha.slotTime 100ms
config Aloha.host[*].iaTime exponential(2s)
config network Aloha
config Aloha.numHosts 20
config Aloha.slotTime 0s
config Aloha.txRate 9.6kbps
config Aloha.host[*].pkLenBits 952b
config **.x "uniform(0m, 1000m)"
config **.y "uniform(0m, 1000m)"
config **.animationHoldTimeOnCollision 0s
config **.idleAnimationSpeed 1
config **.transmissionEdgeAnimationSpeed 1e-6
config **.midTransmissionAnimationSpeed 1e-1

vector 0 Aloha.server serverChannelState:vector ETV
attr enum IDLE=0,TRANSMISSION=1,COLLISION=2
attr recordingmode vector
attr source channelState
attr title "Channel state"
vector 1 Aloha.host[0] radioState:vector ETV
attr enum IDLE=0,TRANSMIT=1
attr recordingmode vector
attr source state
attr title "Radio state"
vector 2 Aloha.host[1] radioState:vector ETV
attr enum IDLE=0,TRANSMIT=1
attr recordingmode vector
attr source state
attr title "Radio state"
vector 3 Aloha.host[2] radioState:vector ETV
attr enum IDLE=0,TRANSMIT=1
attr recordingmode vector
attr source state
attr title "Radio state"
vector 4 Aloha.host[3] radioState:vector ETV
attr enum IDLE=0,TRANSMIT=1
attr recordingmode vector
attr source state
attr title "Radio state"
vector 5 Aloha.host[4] radioState:vector ETV
attr enum IDLE=0,TRANSMIT=1
attr recordingmode vector
attr source state
attr title "Radio state"
vector 6 Aloha.host[5] radioState:vector ETV
attr enum IDLE=0,TRANSMIT=1
attr recordingmode vector
attr source state
attr title "Radio state"
vector 7 Aloha.host[6] radioState:vector ETV
attr enum IDLE=0,TRANSMIT=1
attr recordingmode vector
attr source state
attr title "Radio state"
vector 8 Aloha.host[7] radioState:vector ETV
attr enum IDLE=0,TRANSMIT=1
attr recordingmode vector
attr source state
attr title "Radio state"
vector 9 Aloha.host[8] radioState:vector ETV
attr enum IDLE=0,TRANSMIT=1
attr recordingmode vector
attr source state
attr title "Radio state"
vector 10 Aloha.host[9] radioState:vector ETV
attr enum IDLE=0,TRANSMIT=1
attr recordingmode vector
attr source state
attr title "Radio state"
vector 11 Aloha.host[10] radioState:vector ETV
attr enum IDLE=0,TRANSMIT=1
attr recordingmode vector
attr source state
attr title "Radio state"
vector 12 Aloha.host[11] radioState:vector ETV
attr enum IDLE=0,TRANSMIT=1
attr recordingmode vector
attr source state
attr title "Radio state"
vector 13 Aloha.host[12] radioState:vector ETV
attr enum IDLE=0,TRANSMIT=1
attr recordingmode vector
attr source state
attr title "Radio state"
vector 14 Aloha.host[13] radioState:vector ETV
attr enum IDLE=0,TRANSMIT=1
attr recordingmode vector
attr source state
attr title "Radio state"
vector 15 Aloha.host[14] radioState:vector ETV
attr enum IDLE=0,TRANSMIT=1
attr recordingmode vector
attr source state
attr title "Radio state"
vector 16 Aloha.host[15] radioState:vector ETV
attr enum IDLE=0,TRANSMIT=1
attr recordingmode vector
attr source state
attr title "Radio state"
vector 17 Aloha.host[16] radioState:vector ETV
attr enum IDLE=0,TRANSMIT=1
attr recordingmode vector
attr source state
attr title "Radio state"
vector 18 Aloha.host[17] radioState:vector ETV
attr enum IDLE=0,TRANSMIT=1
attr recordingmode vector
attr source state
attr title "Radio state"
vector 19 Aloha.host[18] radioState:vector ETV
attr enum IDLE=0,TRANSMIT=1
attr recordingmode vector
attr source state
attr title "Radio state"
vector 20 Aloha.host[19] radioState:vector ETV
attr enum IDLE=0,TRANSMIT=1
attr recordingmode vector
attr source state
attr title "Radio state"
0	0	0	0
0	3	0.300001915771	1
0	4	0.300002122942	2
0	7	0.399168789609	0
0	9	0.400000382303	1
0	11	0.49916704897	0
0	13	0.500001487821	1
0	15	0.599168154488	0
0	17	0.700001415319	1
0	19	0.799168081986	0
0	22	1.100001487821	1
0	23	1.100001540431	2
0	26	1.199168207098	0
0	30	1.300000848712	1
0	31	1.300001487821	2
0	32	1.300001692157	2
0	36	1.399168358824	0
0	40	1.500000429876	1
0	41	1.500001540431	2
0	42	1.500001551031	2
0	46	1.599168217698	0
0	48	1.600000670404	1
0	50	1.699167337071	0
0	54	1.800000382303	1
0	55	1.800001091673	2
0	56	1.800001487821	2
0	60	1.899168154488	0
0	62	2.100000672231	1
0	64	2.199167338898	0
0	67	2.200000848712	1
0	68	2.200001551031	2
0	71	2.299168217698	0
0	73	2.300001052601	1
0	75	2.399167719268	0
0	77	2.500001415319	1
0	79	2.599168081986	0
0	81	2.600001748017	1
0	83	2.699168414684	0
0	85	2.700000670404	1
0	87	2.799167337071	0
0	89	2.900001807182	1
0	91	2.999168473849	0
0	95	3.100000670404	1
0	96	3.100000767063	2
0	97	3.100001915771	2
0	101	3.199168582438	0
0	104	3.200000848712	1
0	105	3.200001807182	2
0	108	3.299168473849	0
0	111	3.300000902407	1
0	112	3.300001005647	2
0	115	3.399167672314	0
0	119	3.400000672231	1
0	120	3.400001692157	2
0	121	3.400002122942	2
0	125	3.499168789609	0
0	127	3.500000429876	1
0	129	3.599167096543	0
0	132	3.600001052601	1
0	133	3.600001540431	2
0	136	3.699168207098	0
0	138	3.700001807182	1
0	140	3.799168473849	0
0	142	3.800002122942	1
0	144	3.899168789609	0
0	146	3.900001005647	1
0	148	3.999167672314	0
0	150	4.000002122942	1
0	152	4.099168789609	0
0	155	4.200001487821	1
0	156	4.200001551031	2
0	159	4.299168217698	0
0	162	4.300000672231	1
0	163	4.300000902407	2
0	166	4.399167569074	0
0	168	4.500001052601	1
0	170	4.599167719268	0
0	173	4.700000902407	1
0	174	4.700001540431	2
0	177	4.799168207098	0
0	180	5.100001052601	1
0	181	5.100001748017	2
0	184	5.199168414684	0
0	187	5.200000902407	1
0	188	5.200001005647	2
0	191	5.299167672314	0
0	194	5.400000670404	1
0	195	5.400001915771	2
0	198	5.499168582438	0
0	201	5.500000429876	1
0	202	5.500001807182	2
0	205	5.599168473849	0
0	207	5.600000848712	1
0	209	5.699167515379	0
0	211	5.800001495946	1
0	213	5.899168162613	0
0	215	5.900000902407	1
0	217	5.999167569074	0
0	220	6.200001807182	1
0	221	6.200002122942	2
0	224	6.299168789609	0
0	227	6.300001495946	1
0	228	6.300001692157	2
0	231	6.399168358824	0
0	236	6.600000382303	1
0	237	6.600000672231	2
0	238	6.600001915771	2
0	239	6.600002122942	2
0	244	6.699168789609	0
0	246	6.800000670404	1
0	248	6.899167337071	0
0	252	6.900000429876	1
0	253	6.900000902407	2
0	254	6.900001540431	2
0	258	6.999168207098	0
0	260	7.000000382303	1
0	262	7.09916704897	0
0	265	7.100000902407	1
0	266	7.100001005647	2
0	269	7.199167672314	0
0	272	7.200001495946	1
0	273	7.200001915771	2
0	276	7.299168582438	0
0	278	7.300001415319	1
0	280	7.399168081986	0
0	283	7.400000382303	1
0	284	7.400001052601	2
0	287	7.499167719268	0
0	289	7.600001915771	1
0	291	7.699168582438	0
0	294	7.700000848712	1
0	295	7.700001091673	2
0	298	7.79916775834	0
0	300	7.900000670404	1
0	302	7.999167337071	0
0	304	8.200000670404	1
0	306	8.299167337071	0
0	309	8.600001692157	1
0	310	8.600001807182	2
0	313	8.699168473849	0
0	315	9.000001915771	1
0	317	9.099168582438	0
0	321	9.200001005647	1
0	322	9.200001540431	2
0	323	9.200001915771	2
0	327	9.299168582438	0
0	329	9.300001091673	1
0	331	9.39916775834	0
0	333	9.400001540431	1
0	335	9.499168207098	0
0	337	9.600001495946	1
0	339	9.699168162613	0
0	342	9.800000672231	1
0	343	9.800001540431	2
0	346	9.899168207098	0
0	348	9.900001807182	1
0	350	9.999168473849	0
0	352	10.000001915771	1
0	354	10.099168582438	0
0	357	10.200000670404	1
0	358	10.200000767063	2
0	361	10.29916743373	0
0	363	10.300001807182	1
0	365	10.399168473849	0
0	368	10.500000429876	1
0	369	10.500001005647	2
0	372	10.599167672314	0
0	374	10.600001495946	1
0	376	10.699168162613	0
0	379	10.700000672231	1
0	380	10.700001551031	2
0	383	10.799168217698	0
0	385	10.800001005647	1
0	387	10.899167672314	0
0	389	10.900000902407	1
0	391	10.999167569074	0
0	393	11.100000767063	1
0	395	11.19916743373	0
0	397	11.200001495946	1
0	399	11.299168162613	0
0	401	11.300001540431	1
0	403	11.399168207098	0
0	405	11.400001692157	1
0	407	11.499168358824	0
0	409	11.500001807182	1
0	411	11.599168473849	0
0	414	11.800000382303	1
0	415	11.800001807182	2
0	418	11.899168473849	0
0	420	11.900000767063	1
0	422	11.99916743373	0
0	424	12.200000767063	1
0	426	12.29916743373	0
0	429	12.500000672231	1
0	430	12.500001915771	2
0	433	12.599168582438	0
0	435	12.600001005647	1
0	437	12.699167672314	0
0	439	12.700002122942	1
0	441	12.799168789609	0
0	444	12.800001005647	1
0	445	12.800001495946	2
0	448	12.899168162613	0
0	450	12.900001540431	1
0	452	12.999168207098	0
0	455	13.200001005647	1
0	456	13.200001551031	2
0	459	13.299168217698	0
0	462	13.300001487821	1
0	463	13.300001915771	2
0	466	13.399168582438	0
0	468	13.400000672231	1
0	470	13.499167338898	0
0	472	13.700001807182	1
0	474	13.799168473849	0
0	476	14.000000672231	1
0	478	14.099167338898	0
0	481	14.100001487821	1
0	482	14.100001915771	2
0	485	14.199168582438	0
0	487	14.300001915771	1
0	489	14.399168582438	0
0	492	14.600000670404	1
0	493	14.600001415319	2
0	496	14.699168081986	0
0	498	14.800001915771	1
0	500	14.899168582438	0
0	502	14.900001807182	1
0	504	14.999168473849	0
0	507	15.000001052601	1
0	508	15.000001915771	2
0	511	15.099168582438	0
0	515	15.100000902407	1
0	516	15.100001540431	2
0	517	15.100002122942	2
0	521	15.199168789609	0
0	524	15.400000848712	1
0	525	15.400001807182	2
0	528	15.499168473849	0
0	531	15.700000429876	1
0	532	15.700000670404	2
0	535	15.799167337071	0
0	540	15.900000672231	1
0	541	15.900000902407	2
0	542	15.900001487821	2
0	543	15.900001551031	2
0	548	15.999168217698	0
0	550	16.000001748017	1
0	552	16.099168414684	0
0	554	16.200000848712	1
0	556	16.299167515379	0
0	558	16.400000670404	1
0	560	16.499167337071	0
0	562	16.500001692157	1
0	564	16.599168358824	0
0	566	16.600001495946	1
0	568	16.699168162613	0
0	570	16.800001915771	1
0	572	16.899168582438	0
0	576	17.000000382303	1
0	577	17.000000429876	2
0	578	17.000001005647	2
0	582	17.099167672314	0
0	584	17.100001487821	1
0	586	17.199168154488	0
0	589	17.200001091673	1
0	590	17.200001692157	2
0	593	17.299168358824	0
0	595	17.400001052601	1
0	597	17.499167719268	0
0	599	17.600000767063	1
0	601	17.69916743373	0
0	603	17.700002122942	1
0	605	17.799168789609	0
0	609	17.800000672231	1
0	610	17.800000902407	2
0	611	17.800001052601	2
0	615	17.899167719268	0
0	617	17.900001540431	1
0	619	17.999168207098	0
0	621	18.000000848712	1
0	623	18.099167515379	0
0	627	18.300000429876	1
0	628	18.300001005647	2
0	629	18.300001415319	2
0	633	18.399168081986	0
0	635	18.500000767063	1
0	637	18.59916743373	0
0	639	18.600000670404	1
0	641	18.699167337071	0
0	643	18.900001551031	1
0	645	18.999168217698	0
0	649	19.000000902407	1
0	650	19.000001052601	2
0	651	19.000001415319	2
0	655	19.099168081986	0
0	657	19.200000429876	1
0	659	19.299167096543	0
0	661	19.400000382303	1
0	663	19.49916704897	0
0	665	19.800001692157	1
0	667	19.899168358824	0
0	669	20.200001005647	1
0	671	20.299167672314	0
0	673	20.300001540431	1
0	675	20.399168207098	0
0	678	20.700000429876	1
0	679	20.700001748017	2
0	682	20.799168414684	0
0	684	20.800002122942	1
0	686	20.899168789609	0
0	689	20.900000902407	1
0	690	20.900001005647	2
0	693	20.999167672314	0
0	695	21.000001487821	1
0	697	21.099168154488	0
0	699	21.100000382303	1
0	701	21.19916704897	0
0	704	21.200001487821	1
0	705	21.200001495946	2
0	708	21.299168162613	0
0	711	21.300000672231	1
0	712	21.300001415319	2
0	715	21.399168081986	0
0	717	21.400001551031	1
0	719	21.499168217698	0
0	721	21.700001052601	1
0	723	21.799167719268	0
0	725	21.900001748017	1
0	727	21.999168414684	0
0	729	22.000000429876	1
0	731	22.099167096543	0
0	735	22.100001415319	1
0	736	22.100001495946	2
0	737	22.100001807182	2
0	741	22.199168473849	0
0	743	22.200001551031	1
0	745	22.299168217698	0
0	747	22.300001005647	1
0	749	22.399167672314	0
0	751	22.400000848712	1
0	753	22.499167515379	0
0	757	22.500000382303	1
0	758	22.500001415319	2
0	759	22.500001540431	2
0	763	22.599168207098	0
0	765	22.600001551031	1
0	767	22.699168217698	0
0	769	22.700000848712	1
0	771	22.799167515379	0
0	773	22.800001052601	1
0	775	22.899167719268	0
0	779	22.900000767063	1
0	780	22.900000902407	2
0	781	22.900002122942	2
0	785	22.999168789609	0
0	787	23.000001052601	1
0	789	23.099167719268	0
0	791	23.100001915771	1
0	793	23.199168582438	0
0	795	23.200001005647	1
0	797	23.299167672314	0
0	799	23.400001807182	1
0	801	23.499168473849	0
0	803	23.500000382303	1
0	805	23.59916704897	0
0	807	23.600000672231	1
0	809	23.699167338898	0
0	811	23.800001005647	1
0	813	23.899167672314	0
0	816	23.900001052601	1
0	817	23.900001487821	2
0	820	23.999168154488	0
0	823	24.000000382303	1
0	824	24.000001748017	2
0	827	24.099168414684	0
0	829	24.200001005647	1
0	831	24.299167672314	0
0	833	24.300001540431	1
0	835	24.399168207098	0
0	839	24.400001415319	1
0	840	24.400001551031	2
0	841	24.400001915771	2
0	845	24.499168582438	0
0	847	24.600000848712	1
0	849	24.699167515379	0
0	851	24.700000672231	1
0	853	24.799167338898	0
0	856	24.800000382303	1
0	857	24.800001915771	2
0	860	24.899168582438	0
0	862	24.900000429876	1
0	864	24.999167096543	0
0	867	25.000000848712	1
0	868	25.000001091673	2
0	871	25.09916775834	0
0	875	25.200000767063	1
0	876	25.200000902407	2
0	877	25.200001487821	2
0	881	25.299168154488	0
0	883	25.500000670404	1
0	885	25.599167337071	0
0	889	25.700000670404	1
0	890	25.700000767063	2
0	891	25.700001551031	2
0	895	25.799168217698	0
0	897	25.800000382303	1
0	899	25.89916704897	0
0	901	26.000001540431	1
0	903	26.099168207098	0
0	906	26.200001551031	1
0	907	26.200001692157	2
0	910	26.299168358824	0
0	913	26.300000382303	1
0	914	26.300000429876	2
0	917	26.399167096543	0
0	919	26.400001540431	1
0	921	26.499168207098	0
0	923	26.500001495946	1
0	925	26.599168162613	0
0	927	27.000001415319	1
0	929	27.099168081986	0
0	931	27.300000767063	1
0	933	27.39916743373	0
0	936	27.500001415319	1
0	937	27.500001915771	2
0	940	27.599168582438	0
0	943	27.600001005647	1
0	944	27.600001540431	2
0	947	27.699168207098	0
0	949	27.700001915771	1
0	951	27.799168582438	0
0	954	27.800000670404	1
0	955	27.800001415319	2
0	958	27.899168081986	0
0	960	28.100001807182	1
0	962	28.199168473849	0
0	964	28.300001495946	1
0	966	28.399168162613	0
0	968	28.500000767063	1
0	970	28.59916743373	0
0	973	28.600001495946	1
0	974	28.600001748017	2
0	977	28.699168414684	0
0	980	28.800000848712	1
0	981	28.800001915771	2
0	984	28.899168582438	0
0	987	29.000000848712	1
0	988	29.000001415319	2
0	991	29.099168081986	0
0	994	29.200000670404	1
0	995	29.200000848712	2
0	998	29.299167515379	0
0	1001	29.400001487821	1
0	1002	29.400001692157	2
0	1005	29.499168358824	0
0	1009	29.700000382303	1
0	1010	29.700001415319	2
0	1011	29.700001748017	2
0	1015	29.799168414684	0
0	1017	29.900000672231	1
0	1019	29.999167338898	0
0	1022	30.000000902407	1
0	1023	30.000002122942	2
0	1026	30.099168789609	0
0	1029	30.100001540431	1
0	1030	30.100001551031	2
0	1033	30.199168217698	0
0	1036	30.200000848712	1
0	1037	30.200001748017	2
0	1040	30.299168414684	0
0	1042	30.300000902407	1
0	1044	30.399167569074	0
0	1046	30.400001748017	1
0	1048	30.499168414684	0
0	1050	30.500000429876	1
0	1052	30.599167096543	0
0	1056	30.700000848712	1
0	1057	30.700001415319	2
0	1058	30.700001540431	2
0	1062	30.799168207098	0
0	1065	30.800000902407	1
0	1066	30.800001807182	2
0	1069	30.899168473849	0
0	1071	31.100001551031	1
0	1073	31.199168217698	0
0	1075	31.400001415319	1
0	1077	31.499168081986	0
0	1080	31.500000672231	1
0	1081	31.500002122942	2
0	1084	31.599168789609	0
0	1087	31.700000848712	1
0	1088	31.700002122942	2
0	1091	31.799168789609	0
0	1093	31.900000429876	1
0	1095	31.999167096543	0
0	1099	32.200000670404	1
0	1100	32.200001692157	2
0	1101	32.200002122942	2
0	1105	32.299168789609	0
0	1107	32.300001052601	1
0	1109	32.399167719268	0
0	1111	32.500001692157	1
0	1113	32.599168358824	0
0	1115	32.600000382303	1
0	1117	32.69916704897	0
0	1119	32.700000767063	1
0	1121	32.79916743373	0
0	1123	32.800001915771	1
0	1125	32.899168582438	0
0	1127	33.100001551031	1
0	1129	33.199168217698	0
0	1131	33.200001692157	1
0	1133	33.299168358824	0
0	1135	33.400000429876	1
0	1137	33.499167096543	0
0	1139	33.500000672231	1
0	1141	33.599167338898	0
0	1143	33.600001915771	1
0	1145	33.699168582438	0
0	1147	33.700001748017	1
0	1149	33.799168414684	0
0	1151	34.000001415319	1
0	1153	34.099168081986	0
0	1155	34.100002122942	1
0	1157	34.199168789609	0
0	1159	34.300000670404	1
0	1161	34.399167337071	0
0	1164	34.900000848712	1
0	1165	34.900001052601	2
0	1168	34.999167719268	0
0	1170	35.000001540431	1
0	1172	35.099168207098	0
0	1174	35.100000429876	1
0	1176	35.199167096543	0
0	1179	35.200000670404	1
0	1180	35.200001551031	2
0	1183	35.299168217698	0
0	1185	35.300001487821	1
0	1187	35.399168154488	0
0	1189	35.500001915771	1
0	1191	35.599168582438	0
0	1194	35.600001540431	1
0	1195	35.600001692157	2
0	1198	35.699168358824	0
0	1200	35.700000429876	1
0	1202	35.799167096543	0
0	1205	35.800000670404	1
0	1206	35.800001005647	2
0	1209	35.899167672314	0
0	1212	35.900001487821	1
0	1213	35.900001551031	2
0	1216	35.999168217698	0
0	1218	36.100001052601	1
0	1220	36.199167719268	0
0	1223	36.200000902407	1
0	1224	36.200001495946	2
0	1227	36.299168162613	0
0	1230	36.500000902407	1
0	1231	36.500001495946	2
0	1234	36.599168162613	0
0	1237	36.600001551031	1
0	1238	36.600001748017	2
0	1241	36.699168414684	0
0	1244	36.700000848712	1
0	1245	36.700001807182	2
0	1248	36.799168473849	0
0	1252	36.800001052601	1
0	1253	36.800001415319	2
0	1254	36.800001495946	2
0	1258	36.899168162613	0
0	1260	37.100000429876	1
0	1262	37.199167096543	0
0	1264	37.300001005647	1
0	1266	37.399167672314	0
0	1268	37.400001692157	1
0	1270	37.499168358824	0
0	1272	37.500001551031	1
0	1274	37.599168217698	0
0	1278	37.600000429876	1
0	1279	37.600000672231	2
0	1280	37.600001692157	2
0	1284	37.699168358824	0
0	1286	37.800000902407	1
0	1288	37.899167569074	0
0	1291	37.900000672231	1
0	1292	37.900001052601	2
0	1295	37.999167719268	0
0	1297	38.100001748017	1
0	1299	38.199168414684	0
0	1302	38.300000767063	1
0	1303	38.300001487821	2
0	1306	38.399168154488	0
0	1308	38.400001540431	1
0	1310	38.499168207098	0
0	1312	38.700001091673	1
0	1314	38.79916775834	0
0	1316	38.900001495946	1
0	1318	38.999168162613	0
0	1320	39.000001005647	1
0	1322	39.099167672314	0
0	1324	39.200000848712	1
0	1326	39.299167515379	0
0	1329	39.300000902407	1
0	1330	39.300001052601	2
0	1333	39.399167719268	0
0	1335	39.600001005647	1
0	1337	39.699167672314	0
0	1339	39.800001748017	1
0	1341	39.899168414684	0
0	1343	40.000001692157	1
0	1345	40.099168358824	0
0	1348	40.200001692157	1
0	1349	40.200001748017	2
0	1352	40.299168414684	0
0	1356	40.300000672231	1
0	1357	40.300000767063	2
0	1358	40.300001495946	2
0	1362	40.399168162613	0
0	1364	40.400001005647	1
0	1366	40.499167672314	0
0	1368	40.500000429876	1
0	1370	40.599167096543	0
0	1372	40.600000848712	1
0	1374	40.699167515379	0
0	1377	40.900001748017	1
0	1378	40.900002122942	2
0	1381	40.999168789609	0
0	1384	41.100001540431	1
0	1385	41.100001807182	2
0	1388	41.199168473849	0
0	1390	41.200000767063	1
0	1392	41.29916743373	0
0	1394	41.300000767063	1
0	1396	41.39916743373	0
0	1398	41.400001915771	1
0	1400	41.499168582438	0
0	1403	41.500001005647	1
0	1404	41.500001551031	2
0	1407	41.599168217698	0
0	1409	41.600000902407	1
0	1411	41.699167569074	0
0	1413	41.800002122942	1
0	1415	41.899168789609	0
0	1418	42.300001551031	1
0	1419	42.300001915771	2
0	1422	42.399168582438	0
0	1425	42.500000382303	1
0	1426	42.500000848712	2
0	1429	42.599167515379	0
0	1432	42.700000429876	1
0	1433	42.700001807182	2
0	1436	42.799168473849	0
0	1438	42.800001005647	1
0	1440	42.899167672314	0
0	1442	42.900001915771	1
0	1444	42.999168582438	0
0	1447	43.000000670404	1
0	1448	43.000001487821	2
0	1451	43.099168154488	0
0	1454	43.200001540431	1
0	1455	43.200001692157	2
0	1458	43.299168358824	0
0	1460	43.400001005647	1
0	1462	43.499167672314	0
0	1464	43.700001487821	1
0	1466	43.799168154488	0
0	1468	43.900000848712	1
0	1470	43.999167515379	0
0	1472	44.100001005647	1
0	1474	44.199167672314	0
0	1477	44.200001052601	1
0	1478	44.200001807182	2
0	1481	44.299168473849	0
0	1483	44.400001415319	1
0	1485	44.499168081986	0
0	1487	44.500000848712	1
0	1489	44.599167515379	0
0	1493	44.600001415319	1
0	1494	44.600001487821	2
0	1495	44.600001748017	2
0	1499	44.699168414684	0
0	1502	44.700000672231	1
0	1503	44.700001551031	2
0	1506	44.799168217698	0
0	1508	44.900000902407	1
0	1510	44.999167569074	0
0	1513	45.100001487821	1
0	1514	45.100001495946	2
0	1517	45.199168162613	0
0	1520	45.200000429876	1
0	1521	45.200001748017	2
0	1524	45.299168414684	0
0	1527	45.600000767063	1
0	1528	45.600001807182	2
0	1531	45.699168473849	0
0	1533	45.700001487821	1
0	1535	45.799168154488	0
0	1539	45.800001052601	1
0	1540	45.800001551031	2
0	1541	45.800001748017	2
0	1545	45.899168414684	0
0	1547	45.900001415319	1
0	1549	45.999168081986	0
0	1552	46.000000429876	1
0	1553	46.000001692157	2
0	1556	46.099168358824	0
0	1559	46.200001551031	1
0	1560	46.200001915771	2
0	1563	46.299168582438	0
0	1565	46.300002122942	1
0	1567	46.399168789609	0
0	1569	46.400000429876	1
0	1571	46.499167096543	0
0	1573	46.500001495946	1
0	1575	46.599168162613	0
0	1577	46.700001915771	1
0	1579	46.799168582438	0
0	1581	46.800001692157	1
0	1583	46.899168358824	0
0	1586	47.100000848712	1
0	1587	47.100000902407	2
0	1590	47.199167569074	0
0	1594	47.500000672231	1
0	1595	47.500000767063	2
0	1596	47.500001415319	2
0	1600	47.599168081986	0
0	1603	47.600000429876	1
0	1604	47.600001540431	2
0	1607	47.699168207098	0
0	1610	47.700000848712	1
0	1611	47.700000902407	2
0	1614	47.799167569074	0
0	1616	47.900001495946	1
0	1618	47.999168162613	0
0	1622	48.000000672231	1
0	1623	48.000000767063	2
0	1624	48.000001540431	2
0	1628	48.099168207098	0
0	1631	48.100001091673	1
0	1632	48.100001495946	2
0	1635	48.199168162613	0
0	1637	48.200001748017	1
0	1639	48.299168414684	0
0	1641	48.400001091673	1
0	1643	48.49916775834	0
0	1645	48.500001915771	1
0	1647	48.599168582438	0
0	1649	48.600000429876	1
0	1651	48.699167096543	0
0	1654	48.700001052601	1
0	1655	48.700001091673	2
0	1658	48.79916775834	0
0	1661	48.800000382303	1
0	1662	48.800001748017	2
0	1665	48.899168414684	0
0	1668	48.900001551031	1
0	1669	48.900002122942	2
0	1672	48.999168789609	0
0	1677	49.000000382303	1
0	1678	49.000000670404	2
0	1679	49.000001415319	2
0	1680	49.000001807182	2
0	1685	49.099168473849	0
0	1687	49.400000382303	1
0	1689	49.49916704897	0
0	1691	49.500001551031	1
0	1693	49.599168217698	0
0	1698	49.700000382303	1
0	1699	49.700001551031	2
0	1700	49.700001807182	2
0	1701	49.700002122942	2
0	1706	49.799168789609	0
0	1709	49.800000670404	1
0	1710	49.800001487821	2
0	1713	49.899168154488	0
0	1715	49.900000382303	1
0	1717	49.99916704897	0
0	1720	50.400000429876	1
0	1721	50.400000848712	2
0	1724	50.499167515379	0
0	1728	50.600001005647	1
0	1729	50.600001091673	2
0	1730	50.600001692157	2
0	1734	50.699168358824	0
0	1738	50.900000767063	1
0	1739	50.900001091673	2
0	1740	50.900001540431	2
0	1744	50.999168207098	0
0	1746	51.000000672231	1
0	1748	51.099167338898	0
0	1751	51.200000848712	1
0	1752	51.200001692157	2
0	1755	51.299168358824	0
0	1758	51.400001415319	1
0	1759	51.400001915771	2
0	1762	51.499168582438	0
0	1765	51.500001052601	1
0	1766	51.500002122942	2
0	1769	51.599168789609	0
0	1772	52.100001052601	1
0	1773	52.100001551031	2
0	1776	52.199168217698	0
0	1779	52.400001415319	1
0	1780	52.400001540431	2
0	1783	52.499168207098	0
0	1786	52.500000767063	1
0	1787	52.500001005647	2
0	1790	52.599167672314	0
0	1793	52.800001052601	1
0	1794	52.800001091673	2
0	1797	52.89916775834	0
0	1799	52.900001495946	1
0	1801	52.999168162613	0
0	1804	53.000000429876	1
0	1805	53.000000670404	2
0	1808	53.099167337071	0
0	1810	53.400001915771	1
0	1812	53.499168582438	0
0	1816	53.500000902407	1
0	1817	53.500001487821	2
0	1818	53.500001551031	2
0	1822	53.599168217698	0
0	1824	54.000001005647	1
0	1826	54.099167672314	0
0	1828	54.300001487821	1
0	1830	54.399168154488	0
0	1833	54.400000848712	1
0	1834	54.400001495946	2
0	1837	54.499168162613	0
0	1839	54.900001487821	1
0	1841	54.999168154488	0
0	1843	55.000000902407	1
0	1845	55.099167569074	0
0	1848	55.100000670404	1
0	1849	55.100001487821	2
0	1852	55.199168154488	0
0	1854	55.200001807182	1
0	1856	55.299168473849	0
0	1860	55.500001091673	1
0	1861	55.500001692157	2
0	1862	55.500001748017	2
0	1866	55.599168414684	0
0	1868	55.600000429876	1
0	1870	55.699167096543	0
0	1872	55.700001807182	1
0	1874	55.799168473849	0
0	1876	56.100000670404	1
0	1878	56.199167337071	0
0	1880	56.200001052601	1
0	1882	56.299167719268	0
0	1884	56.400001052601	1
0	1886	56.499167719268	0
0	1888	56.500000848712	1
0	1890	56.599167515379	0
0	1892	56.800001540431	1
0	1894	56.899168207098	0
0	1896	57.100000429876	1
0	1898	57.199167096543	0
0	1900	57.300000848712	1
0	1902	57.399167515379	0
0	1904	57.400001551031	1
0	1906	57.499168217698	0
0	1908	57.500001495946	1
0	1910	57.599168162613	0
0	1912	57.600000670404	1
0	1914	57.699167337071	0
0	1917	57.700000848712	1
0	1918	57.700001915771	2
0	1921	57.799168582438	0
0	1924	57.900001005647	1
0	1925	57.900001540431	2
0	1928	57.999168207098	0
0	1930	58.200002122942	1
0	1932	58.299168789609	0
0	1937	58.300000429876	1
0	1938	58.300000767063	2
0	1939	58.300001540431	2
0	1940	58.300001915771	2
0	1945	58.399168582438	0
0	1947	58.400000382303	1
0	1949	58.49916704897	0
0	1952	58.500000670404	1
0	1953	58.500001415319	2
0	1956	58.599168081986	0
0	1958	58.600001052601	1
0	1960	58.699167719268	0
0	1966	58.700000429876	1
0	1967	58.700000672231	2
0	1968	58.700001551031	2
0	1969	58.700001748017	2
0	1970	58.700001807182	2
0	1976	58.799168473849	0
0	1979	58.900000848712	1
0	1980	58.900002122942	2
0	1983	58.999168789609	0
0	1985	59.200001487821	1
0	1987	59.299168154488	0
0	1992	59.500000670404	1
0	1993	59.500001005647	2
0	1994	59.500001487821	2
0	1995	59.500001915771	2
0	2000	59.599168582438	0
0	2002	59.700000429876	1
0	2004	59.799167096543	0
0	2007	59.900000848712	1
0	2008	59.900001807182	2
0	2011	59.999168473849	0
0	2013	60.100002122942	1
0	2015	60.199168789609	0
0	2018	60.200000382303	1
0	2019	60.200001487821	2
0	2022	60.299168154488	0
0	2024	60.300001807182	1
0	2026	60.399168473849	0
0	2029	60.400001005647	1
0	2030	60.400002122942	2
0	2033	60.499168789609	0
0	2035	60.500001807182	1
0	2037	60.599168473849	0
0	2039	60.600001005647	1
0	2041	60.699167672314	0
0	2043	60.700001915771	1
0	2045	60.799168582438	0
0	2047	60.800000848712	1
0	2049	60.899167515379	0
0	2051	61.100001495946	1
0	2053	61.199168162613	0
0	2055	61.200001915771	1
0	2057	61.299168582438	0
0	2059	61.400001495946	1
0	2061	61.499168162613	0
0	2063	61.500001005647	1
0	2065	61.599167672314	0
0	2067	61.700001495946	1
0	2069	61.799168162613	0
0	2071	61.800001551031	1
0	2073	61.899168217698	0
0	2075	61.900001915771	1
0	2077	61.999168582438	0
0	2079	62.000000672231	1
0	2081	62.099167338898	0
0	2083	62.100002122942	1
0	2085	62.199168789609	0
0	2087	62.400001540431	1
0	2089	62.499168207098	0
0	2091	62.500000902407	1
0	2093	62.599167569074	0
0	2096	62.600000670404	1
0	2097	62.600001915771	2
0	2100	62.699168582438	0
0	2102	62.900001487821	1
0	2104	62.999168154488	0
0	2107	63.300000672231	1
0	2108	63.300002122942	2
0	2111	63.399168789609	0
0	2114	63.600001748017	1
0	2115	63.600001807182	2
0	2118	63.699168473849	0
0	2121	63.700001692157	1
0	2122	63.700002122942	2
0	2125	63.799168789609	0
0	2127	63.900001005647	1
0	2129	63.999167672314	0
0	2131	64.000001487821	1
0	2133	64.099168154488	0
0	2137	64.100001091673	1
0	2138	64.100001495946	2
0	2139	64.100001692157	2
0	2143	64.199168358824	0
0	2145	64.200001005647	1
0	2147	64.299167672314	0
0	2150	64.300000902407	1
0	2151	64.300001807182	2
0	2154	64.399168473849	0
0	2156	64.400001748017	1
0	2158	64.499168414684	0
0	2160	64.900001692157	1
0	2162	64.999168358824	0
0	2164	65.000001091673	1
0	2166	65.09916775834	0
0	2168	65.100000429876	1
0	2170	65.199167096543	0
0	2173	65.200000848712	1
0	2174	65.200001052601	2
0	2177	65.299167719268	0
0	2180	65.300001540431	1
0	2181	65.300001551031	2
0	2184	65.399168217698	0
0	2186	65.400001487821	1
0	2188	65.499168154488	0
0	2192	65.600001005647	1
0	2193	65.600001495946	2
0	2194	65.600002122942	2
0	2198	65.699168789609	0
0	2200	65.700000902407	1
0	2202	65.799167569074	0
0	2207	65.900001005647	1
0	2208	65.900001415319	2
0	2209	65.900001487821	2
0	2210	65.900001807182	2
0	2215	65.999168473849	0
0	2219	66.000000672231	1
0	2220	66.000000902407	2
0	2221	66.000001052601	2
0	2225	66.099167719268	0
0	2227	66.200001692157	1
0	2229	66.299168358824	0
0	2232	66.300000670404	1
0	2233	66.300000767063	2
0	2236	66.39916743373	0
0	2238	66.400001551031	1
0	2240	66.499168217698	0
0	2244	66.500000382303	1
0	2245	66.500000848712	2
0	2246	66.500001487821	2
0	2250	66.599168154488	0
0	2254	66.700000848712	1
0	2255	66.700001551031	2
0	2256	66.700001915771	2
0	2260	66.799168582438	0
0	2263	66.800000767063	1
0	2264	66.800001748017	2