version 3
run SlottedAloha1-0-20230204-20:01:01-10188
attr configname SlottedAloha1
attr datetime 20230204-20:01:01
attr datetimef 20230204-200101
attr experiment SlottedAloha1
attr inifile omnetpp.ini
attr iterationvars ""
attr iterationvarsd ""
attr iterationvarsf ""
attr measurement ""
attr network Aloha
attr processid 10188
attr repetition 0
attr replication #0
attr resultdir results
attr runnumber 0
attr seedset 0
config description "slotted Aloha, overloaded"
config Aloha.slotTime 100ms
config Aloha.host[*].iaTime exponential(0.5s)
config network Aloha
config Aloha.numHosts 20
config Aloha.slotTime 0s
config Aloha.txRate 9.6kbps
config Aloha.host[*].pkLenBits 952b
config **.x "uniform(0m, 1000m)"
config **.y "uniform(0m, 1000m)"
config **.animationHoldTimeOnCollision 0s
config **.idleAnimationSpeed 1
config **.transmissionEdgeAnimationSpeed 1e-6
config **.midTransmissionAnimationSpeed 1e-1

vector 0 Aloha.server serverChannelState:vector ETV
attr enum IDLE=0,TRANSMISSION=1,COLLISION=2
attr recordingmode vector
attr source channelState
attr title "Channel state"
vector 1 Aloha.host[0] radioState:vector ETV
attr enum IDLE=0,TRANSMIT=1
attr recordingmode vector
attr source state
attr title "Radio state"
vector 2 Aloha.host[1] radioState:vector ETV
attr enum IDLE=0,TRANSMIT=1
attr recordingmode vector
attr source state
attr title "Radio state"
vector 3 Aloha.host[2] radioState:vector ETV
attr enum IDLE=0,TRANSMIT=1
attr recordingmode vector
attr source state
attr title "Radio state"
vector 4 Aloha.host[3] radioState:vector ETV
attr enum IDLE=0,TRANSMIT=1
attr recordingmode vector
attr source state
attr title "Radio state"
vector 5 Aloha.host[4] radioState:vector ETV
attr enum IDLE=0,TRANSMIT=1
attr recordingmode vector
attr source state
attr title "Radio state"
vector 6 Aloha.host[5] radioState:vector ETV
attr enum IDLE=0,TRANSMIT=1
attr recordingmode vector
attr source state
attr title "Radio state"
vector 7 Aloha.host[6] radioState:vector ETV
attr enum IDLE=0,TRANSMIT=1
attr recordingmode vector
attr source state
attr title "Radio state"
vector 8 Aloha.host[7] radioState:vector ETV
attr enum IDLE=0,TRANSMIT=1
attr recordingmode vector
attr source state
attr title "Radio state"
vector 9 Aloha.host[8] radioState:vector ETV
attr enum IDLE=0,TRANSMIT=1
attr recordingmode vector
attr source state
attr title "Radio state"
vector 10 Aloha.host[9] radioState:vector ETV
attr enum IDLE=0,TRANSMIT=1
attr recordingmode vector
attr source state
attr title "Radio state"
vector 11 Aloha.host[10] radioState:vector ETV
attr enum IDLE=0,TRANSMIT=1
attr recordingmode vector
attr source state
attr title "Radio state"
vector 12 Aloha.host[11] radioState:vector ETV
attr enum IDLE=0,TRANSMIT=1
attr recordingmode vector
attr source state
attr title "Radio state"
vector 13 Aloha.host[12] radioState:vector ETV
attr enum IDLE=0,TRANSMIT=1
attr recordingmode vector
attr source state
attr title "Radio state"
vector 14 Aloha.host[13] radioState:vector ETV
attr enum IDLE=0,TRANSMIT=1
attr recordingmode vector
attr source state
attr title "Radio state"
vector 15 Aloha.host[14] radioState:vector ETV
attr enum IDLE=0,TRANSMIT=1
attr recordingmode vector
attr source state
attr title "Radio state"
vector 16 Aloha.host[15] radioState:vector ETV
attr enum IDLE=0,TRANSMIT=1
attr recordingmode vector
attr source state
attr title "Radio state"
vector 17 Aloha.host[16] radioState:vector ETV
attr enum IDLE=0,TRANSMIT=1
attr recordingmode vector
attr source state
attr title "Radio state"
vector 18 Aloha.host[17] radioState:vector ETV
attr enum IDLE=0,TRANSMIT=1
attr recordingmode vector
attr source state
attr title "Radio state"
vector 19 Aloha.host[18] radioState:vector ETV
attr enum IDLE=0,TRANSMIT=1
attr recordingmode vector
attr source state
attr title "Radio state"
vector 20 Aloha.host[19] radioState:vector ETV
attr enum IDLE=0,TRANSMIT=1
attr recordingmode vector
attr source state
attr title "Radio state"
0	0	0	0
0	4	0.100000382303	1
0	5	0.100001915771	2
0	6	0.100002122942	2
0	10	0.199168789609	0
0	13	0.200001415319	1
0	14	0.200001487821	2
0	17	0.299168154488	0
0	19	0.300001540431	1
0	21	0.399168207098	0
0	27	0.400000429876	1
0	28	0.400000670404	2
0	29	0.400000848712	2
0	30	0.400001551031	2
0	31	0.400001692157	2
0	37	0.499168358824	0
0	41	0.500001091673	1
0	42	0.500001415319	2
0	43	0.500001540431	2
0	47	0.599168207098	0
0	53	0.600000672231	1
0	54	0.600000848712	2
0	55	0.600001052601	2
0	56	0.600001551031	2
0	57	0.600001915771	2
0	63	0.699168582438	0
0	66	0.700000429876	1
0	67	0.700001748017	2
0	70	0.799168414684	0
0	75	0.800000767063	1
0	76	0.800001091673	2
0	77	0.800001487821	2
0	78	0.800001807182	2
0	83	0.899168473849	0
0	88	0.900000382303	1
0	89	0.900000902407	2
0	90	0.900001005647	2
0	91	0.900001540431	2
0	96	0.999168207098	0
0	104	1.000000670404	1
0	105	1.000000848712	2
0	106	1.000001091673	2
0	107	1.000001487821	2
0	108	1.000001551031	2
0	109	1.000001692157	2
0	110	1.000002122942	2
0	118	1.099168789609	0
0	121	1.100000429876	1
0	122	1.100001415319	2
0	125	1.199168081986	0
0	128	1.200000848712	1
0	129	1.200002122942	2
0	132	1.299168789609	0
0	137	1.300000670404	1
0	138	1.300001487821	2
0	139	1.300001748017	2
0	140	1.300001915771	2
0	145	1.399168582438	0
0	149	1.400000429876	1
0	150	1.400000848712	2
0	151	1.400001692157	2
0	155	1.499168358824	0
0	159	1.500001415319	1
0	160	1.500001495946	2
0	161	1.500001807182	2
0	165	1.599168473849	0
0	171	1.600000382303	1
0	172	1.600000902407	2
0	173	1.600001091673	2
0	174	1.600001540431	2
0	175	1.600001692157	2
0	181	1.699168358824	0
0	185	1.700000848712	1
0	186	1.700001807182	2
0	187	1.700001915771	2
0	191	1.799168582438	0
0	194	1.800001551031	1
0	195	1.800002122942	2
0	198	1.899168789609	0
0	201	1.900000672231	1
0	202	1.900001540431	2
0	205	1.999168207098	0
0	210	2.000000848712	1
0	211	2.000001091673	2
0	212	2.000001551031	2
0	213	2.000001748017	2
0	218	2.099168414684	0
0	223	2.100000429876	1
0	224	2.100000672231	2
0	225	2.100000767063	2
0	226	2.100001692157	2
0	231	2.199168358824	0
0	238	2.200000382303	1
0	239	2.200000848712	2
0	240	2.200001052601	2
0	241	2.200001495946	2
0	242	2.200001915771	2
0	243	2.200002122942	2
0	250	2.299168789609	0
0	254	2.300000902407	1
0	255	2.300001091673	2
0	256	2.300001807182	2
0	260	2.399168473849	0
0	264	2.400000382303	1
0	265	2.400000767063	2
0	266	2.400001495946	2
0	270	2.499168162613	0
0	273	2.500000902407	1
0	274	2.500001692157	2
0	277	2.599168358824	0
0	279	2.600001540431	1
0	281	2.699168207098	0
0	284	2.700000902407	1
0	285	2.700001748017	2
0	288	2.799168414684	0
0	292	2.800000672231	1
0	293	2.800001005647	2
0	294	2.800001915771	2
0	298	2.899168582438	0
0	303	2.900000382303	1
0	304	2.900000848712	2
0	305	2.900001495946	2
0	306	2.900001551031	2
0	311	2.999168217698	0
0	315	3.000000672231	1
0	316	3.000001005647	2
0	317	3.000001487821	2
0	321	3.099168154488	0
0	324	3.100001495946	1
0	325	3.100001748017	2
0	328	3.199168414684	0
0	334	3.200000672231	1
0	335	3.200001052601	2
0	336	3.200001540431	2
0	337	3.200001551031	2
0	338	3.200001915771	2
0	344	3.299168582438	0
0	348	3.300000382303	1
0	349	3.300001487821	2
0	350	3.300002122942	2
0	354	3.399168789609	0
0	357	3.400001495946	1
0	358	3.400001551031	2
0	361	3.499168217698	0
0	365	3.500000672231	1
0	366	3.500000902407	2
0	367	3.500001005647	2
0	371	3.599167672314	0
0	374	3.600000767063	1
0	375	3.600001540431	2
0	378	3.699168207098	0
0	382	3.700000429876	1
0	383	3.700000670404	2
0	384	3.700001551031	2
0	388	3.799168217698	0
0	391	3.800000767063	1
0	392	3.800001748017	2
0	395	3.899168414684	0
0	399	3.900000382303	1
0	400	3.900000429876	2
0	401	3.900001487821	2
0	405	3.999168154488	0
0	409	4.000000902407	1
0	410	4.000001005647	2
0	411	4.000002122942	2
0	415	4.099168789609	0
0	419	4.100000382303	1
0	420	4.100000767063	2
0	421	4.100001748017	2
0	425	4.199168414684	0
0	428	4.200001807182	1
0	429	4.200002122942	2
0	432	4.299168789609	0
0	436	4.300000670404	1
0	437	4.300001091673	2
0	438	4.300001415319	2
0	442	4.399168081986	0
0	446	4.400000382303	1
0	447	4.400000767063	2
0	448	4.400001052601	2
0	452	4.499167719268	0
0	456	4.500000670404	1
0	457	4.500001692157	2
0	458	4.500001807182	2
0	462	4.599168473849	0
0	468	4.600001052601	1
0	469	4.600001487821	2
0	470	4.600001495946	2
0	471	4.600001915771	2
0	472	4.600002122942	2
0	478	4.699168789609	0
0	482	4.700000902407	1
0	483	4.700001692157	2
0	484	4.700001807182	2
0	488	4.799168473849	0
0	491	4.800000382303	1
0	492	4.800001005647	2
0	495	4.899167672314	0
0	501	4.900000672231	1
0	502	4.900001052601	2
0	503	4.900001091673	2
0	504	4.900001415319	2
0	505	4.900001495946	2
0	511	4.999168162613	0
0	516	5.000000429876	1
0	517	5.000000848712	2
0	518	5.000001540431	2
0	519	5.000001807182	2
0	524	5.099168473849	0
0	526	5.100001692157	1
0	528	5.199168358824	0
0	533	5.200000670404	1
0	534	5.200001551031	2
0	535	5.200001748017	2
0	536	5.200001915771	2
0	541	5.299168582438	0
0	544	5.300000672231	1
0	545	5.300000848712	2
0	548	5.399167515379	0
0	553	5.400000382303	1
0	554	5.400000767063	2
0	555	5.400001487821	2
0	556	5.400002122942	2
0	561	5.499168789609	0
0	566	5.500000672231	1
0	567	5.500001415319	2
0	568	5.500001495946	2
0	569	5.500001692157	2
0	574	5.599168358824	0
0	578	5.600000848712	1
0	579	5.600001052601	2
0	580	5.600001551031	2
0	584	5.699168217698	0
0	587	5.700001005647	1
0	588	5.700001807182	2
0	591	5.799168473849	0
0	595	5.800000382303	1
0	596	5.800001692157	2
0	597	5.800002122942	2
0	601	5.899168789609	0
0	603	5.900001052601	1
0	605	5.999167719268	0
0	607	6.000001915771	1
0	609	6.099168582438	0
0	611	6.100000672231	1
0	613	6.199167338898	0
0	616	6.200001091673	1
0	617	6.200001415319	2
0	620	6.299168081986	0
0	626	6.300000767063	1
0	627	6.300001540431	2
0	628	6.300001692157	2
0	629	6.300001748017	2
0	630	6.300001807182	2
0	636	6.399168473849	0
0	641	6.400000672231	1
0	642	6.400001005647	2
0	643	6.400001052601	2
0	644	6.400001487821	2
0	649	6.499168154488	0
0	653	6.500000382303	1
0	654	6.500000902407	2
0	655	6.500001692157	2
0	659	6.599168358824	0
0	662	6.600001415319	1
0	663	6.600002122942	2
0	666	6.699168789609	0
0	671	6.700000429876	1
0	672	6.700001005647	2
0	673	6.700001495946	2
0	674	6.700001540431	2
0	679	6.799168207098	0
0	684	6.800000382303	1
0	685	6.800000902407	2
0	686	6.800001551031	2
0	687	6.800001807182	2
0	692	6.899168473849	0
0	700	6.900000767063	1
0	701	6.900001005647	2
0	702	6.900001091673	2
0	703	6.900001487821	2
0	704	6.900001540431	2
0	705	6.900001692157	2
0	706	6.900001748017	2
0	714	6.999168414684	0
0	716	7.000001807182	1
0	718	7.099168473849	0
0	723	7.100000429876	1
0	724	7.100000672231	2
0	725	7.100001487821	2
0	726	7.100001551031	2
0	731	7.199168217698	0
0	735	7.200000382303	1
0	736	7.200001052601	2
0	737	7.200002122942	2
0	741	7.299168789609	0
0	745	7.300000670404	1
0	746	7.300001487821	2
0	747	7.300001807182	2
0	751	7.399168473849	0
0	757	7.400000429876	1
0	758	7.400000848712	2
0	759	7.400000902407	2
0	760	7.400001415319	2
0	761	7.400002122942	2
0	767	7.499168789609	0
0	772	7.500000672231	1
0	773	7.500000767063	2
0	774	7.500001091673	2
0	775	7.500001748017	2
0	780	7.599168414684	0
0	787	7.600000382303	1
0	788	7.600001005647	2
0	789	7.600001052601	2
0	790	7.600001487821	2
0	791	7.600001692157	2
0	792	7.600002122942	2
0	799	7.699168789609	0
0	802	7.700001091673	1
0	803	7.700001915771	2
0	806	7.799168582438	0
0	809	7.800000382303	1
0	810	7.800000429876	2
0	813	7.899167096543	0
0	819	7.900000767063	1
0	820	7.900001091673	2
0	821	7.900001415319	2
0	822	7.900001495946	2
0	823	7.900001915771	2
0	829	7.999168582438	0
0	833	8.100001415319	1
0	834	8.100001495946	2
0	835	8.100001692157	2
0	839	8.199168358824	0
0	841	8.200000902407	1
0	843	8.299167569074	0
0	846	8.300000429876	1
0	847	8.300000672231	2
0	850	8.399167338898	0
0	855	8.400000382303	1
0	856	8.400000848712	2
0	857	8.400000902407	2
0	858	8.400001551031	2
0	863	8.499168217698	0
0	866	8.500000429876	1
0	867	8.500001495946	2
0	870	8.599168162613	0
0	873	8.600001551031	1
0	874	8.600001807182	2
0	877	8.699168473849	0
0	881	8.700000672231	1
0	882	8.700001052601	2
0	883	8.700001415319	2
0	887	8.799168081986	0
0	893	8.800000767063	1
0	894	8.800000902407	2
0	895	8.800001540431	2
0	896	8.800001551031	2
0	897	8.800002122942	2
0	903	8.899168789609	0
0	907	8.900000429876	1
0	908	8.900001487821	2
0	909	8.900001748017	2
0	913	8.999168414684	0
0	918	9.000000902407	1
0	919	9.000001495946	2
0	920	9.000001540431	2
0	921	9.000001915771	2
0	926	9.099168582438	0
0	932	9.100000382303	1
0	933	9.100000767063	2
0	934	9.100001091673	2
0	935	9.100001415319	2
0	936	9.100001692157	2
0	942	9.199168358824	0
0	944	9.200001495946	1
0	946	9.299168162613	0
0	950	9.300000767063	1
0	951	9.300001692157	2
0	952	9.300001748017	2
0	956	9.399168414684	0
0	961	9.400001415319	1
0	962	9.400001495946	2
0	963	9.400001540431	2
0	964	9.400001807182	2
0	969	9.499168473849	0
0	974	9.500000382303	1
0	975	9.500000670404	2
0	976	9.500000902407	2
0	977	9.500001748017	2
0	982	9.599168414684	0
0	984	9.600001091673	1
0	986	9.69916775834	0
0	990	9.700000429876	1
0	991	9.700001551031	2
0	992	9.700001807182	2
0	996	9.799168473849	0
0	1001	9.800000767063	1
0	1002	9.800001091673	2
0	1003	9.800001415319	2
0	1004	9.800001915771	2
0	1009	9.899168582438	0
0	1013	9.900000429876	1
0	1014	9.900001052601	2
0	1015	9.900002122942	2
0	1019	9.999168789609	0
0	1021	10.000000767063	1
0	1023	10.09916743373	0
0	1026	10.100000902407	1
0	1027	10.100001748017	2
0	1030	10.199168414684	0
0	1034	10.200001052601	1
0	1035	10.200001692157	2
0	1036	10.200001807182	2
0	1040	10.299168473849	0
0	1043	10.300000382303	1
0	1044	10.300000767063	2
0	1047	10.39916743373	0
0	1050	10.400001415319	1
0	1051	10.400001915771	2
0	1054	10.499168582438	0
0	1057	10.500001091673	1
0	1058	10.500001487821	2
0	1061	10.599168154488	0
0	1065	10.600000848712	1
0	1066	10.600001540431	2
0	1067	10.600001551031	2
0	1071	10.699168217698	0
0	1076	10.700000672231	1
0	1077	10.700000902407	2
0	1078	10.700001415319	2
0	1079	10.700001692157	2
0	1084	10.799168358824	0
0	1087	10.800001052601	1
0	1088	10.800001748017	2
0	1091	10.899168414684	0
0	1096	10.900000848712	1
0	1097	10.900001091673	2
0	1098	10.900001540431	2
0	1099	10.900001551031	2
0	1104	10.999168217698	0
0	1109	11.000000670404	1
0	1110	11.000000672231	2
0	1111	11.000000902407	2
0	1112	11.000001495946	2
0	1117	11.099168162613	0
0	1122	11.100000382303	1
0	1123	11.100000767063	2
0	1124	11.100001005647	2
0	1125	11.100001487821	2
0	1130	11.199168154488	0
0	1135	11.200000670404	1
0	1136	11.200000672231	2
0	1137	11.200000902407	2
0	1138	11.200001540431	2
0	1143	11.299168207098	0
0	1148	11.300001052601	1
0	1149	11.300001415319	2
0	1150	11.300001495946	2
0	1151	11.300001807182	2
0	1156	11.399168473849	0
0	1160	11.400000429876	1
0	1161	11.400000767063	2
0	1162	11.400001091673	2
0	1166	11.49916775834	0
0	1170	11.500001005647	1
0	1171	11.500001052601	2
0	1172	11.500001807182	2
0	1176	11.599168473849	0
0	1182	11.600000382303	1
0	1183	11.600000429876	2
0	1184	11.600000672231	2
0	1185	11.600001551031	2
0	1186	11.600001748017	2
0	1192	11.699168414684	0
0	1195	11.800000902407	1
0	1196	11.800001415319	2
0	1199	11.899168081986	0
0	1201	11.900001540431	1
0	1203	11.999168207098	0
0	1206	12.000001005647	1
0	1207	12.000001807182	2
0	1210	12.099168473849	0
0	1214	12.100000767063	1
0	1215	12.100001415319	2
0	1216	12.100001748017	2
0	1220	12.199168414684	0
0	1225	12.200001052601	1
0	1226	12.200001091673	2
0	1227	12.200001551031	2
0	1228	12.200001915771	2
0	1233	12.299168582438	0
0	1239	12.300000902407	1
0	1240	12.300001415319	2
0	1241	12.300001487821	2
0	1242	12.300001692157	2
0	1243	12.300001748017	2
0	1249	12.399168414684	0
0	1254	12.400000672231	1
0	1255	12.400000767063	2
0	1256	12.400001495946	2
0	1257	12.400001540431	2
0	1262	12.499168207098	0
0	1267	12.500000767063	1
0	1268	12.500001551031	2
0	1269	12.500001915771	2
0	1270	12.500002122942	2
0	1275	12.599168789609	0
0	1277	12.600001415319	1
0	1279	12.699168081986	0
0	1282	12.700001005647	1
0	1283	12.700001487821	2
0	1286	12.799168154488	0
0	1290	12.800000848712	1
0	1291	12.800001551031	2
0	1292	12.800001915771	2
0	1296	12.899168582438	0
0	1301	12.900000382303	1
0	1302	12.900000672231	2
0	1303	12.900000767063	2
0	1304	12.900001748017	2
0	1309	12.999168414684	0
0	1313	13.000000902407	1
0	1314	13.000001487821	2
0	1315	13.000001540431	2
0	1319	13.099168207098	0
0	1321	13.100001091673	1
0	1323	13.19916775834	0
0	1326	13.200000670404	1
0	1327	13.200000672231	2
0	1330	13.299167338898	0
0	1334	13.300001540431	1
0	1335	13.300001551031	2
0	1336	13.300001807182	2
0	1340	13.399168473849	0
0	1344	13.400001052601	1
0	1345	13.400001495946	2
0	1346	13.400001748017	2
0	1350	13.499168414684	0
0	1355	13.500000670404	1
0	1356	13.500000672231	2
0	1357	13.500000848712	2
0	1358	13.500001415319	2
0	1363	13.599168081986	0
0	1368	13.600000382303	1
0	1369	13.600001495946	2
0	1370	13.600001692157	2
0	1371	13.600001807182	2
0	1376	13.699168473849	0
0	1379	13.700000848712	1
0	1380	13.700002122942	2
0	1383	13.799168789609	0
0	1388	13.800000767063	1
0	1389	13.800001415319	2
0	1390	13.800001487821	2
0	1391	13.800001540431	2
0	1396	13.899168207098	0
0	1401	13.900000670404	1
0	1402	13.900001005647	2
0	1403	13.900001052601	2
0	1404	13.900001495946	2
0	1409	13.999168162613	0
0	1413	14.000000848712	1
0	1414	14.000001692157	2
0	1415	14.000002122942	2
0	1419	14.099168789609	0
0	1423	14.100000429876	1
0	1424	14.100001005647	2
0	1425	14.100001807182	2
0	1429	14.199168473849	0
0	1434	14.200001495946	1
0	1435	14.200001692157	2
0	1436	14.200001748017	2
0	1437	14.200002122942	2
0	1442	14.299168789609	0
0	1446	14.300000382303	1
0	1447	14.300000672231	2
0	1448	14.300001091673	2
0	1452	14.39916775834	0
0	1455	14.400000670404	1
0	1456	14.400000767063	2
0	1459	14.49916743373	0
0	1466	14.500000672231	1
0	1467	14.500001091673	2
0	1468	14.500001692157	2
0	1469	14.500001807182	2
0	1470	14.500001915771	2
0	1471	14.500002122942	2
0	1478	14.599168789609	0
0	1484	14.600000767063	1
0	1485	14.600000902407	2
0	1486	14.600001005647	2
0	1487	14.600001052601	2
0	1488	14.600001415319	2
0	1494	14.699168081986	0
0	1496	14.700001692157	1
0	1498	14.799168358824	0
0	1506	14.800000382303	1
0	1507	14.800000670404	2
0	1508	14.800000848712	2
0	1509	14.800000902407	2
0	1510	14.800001005647	2
0	1511	14.800001487821	2
0	1512	14.800001748017	2
0	1520	14.899168414684	0
0	1524	14.900000429876	1
0	1525	14.900001052601	2
0	1526	14.900001540431	2
0	1530	14.999168207098	0
0	1533	15.000001551031	1
0	1534	15.000001748017	2
0	1537	15.099168414684	0
0	1542	15.100000670404	1
0	1543	15.100000902407	2
0	1544	15.100001005647	2
0	1545	15.100001052601	2
0	1550	15.199167719268	0
0	1554	15.200001540431	1
0	1555	15.200001551031	2
0	1556	15.200001748017	2
0	1560	15.299168414684	0
0	1567	15.300000672231	1
0	1568	15.300001005647	2
0	1569	15.300001091673	2
0	1570	15.300001495946	2
0	1571	15.300001692157	2
0	1572	15.300001915771	2
0	1579	15.399168582438	0
0	1583	15.400000767063	1
0	1584	15.400000848712	2
0	1585	15.400002122942	2
0	1589	15.499168789609	0
0	1592	15.500000672231	1
0	1593	15.500001692157	2
0	1596	15.599168358824	0
0	1600	15.600000429876	1
0	1601	15.600001487821	2
0	1602	15.600001495946	2
0	1606	15.699168162613	0
0	1608	15.700000670404	1
0	1610	15.799167337071	0
0	1613	15.800001005647	1
0	1614	15.800001052601	2
0	1617	15.899167719268	0
0	1622	15.900001091673	1
0	1623	15.900001415319	2
0	1624	15.900001495946	2
0	1625	15.900002122942	2
0	1630	15.999168789609	0
0	1633	16.000000429876	1
0	1634	16.000000767063	2
0	1637	16.09916743373	0
0	1642	16.100001005647	1
0	1643	16.100001551031	2
0	1644	16.100001807182	2
0	1645	16.100001915771	2
0	1650	16.199168582438	0
0	1653	16.200001487821	1
0	1654	16.200001540431	2
0	1657	16.299168207098	0
0	1659	16.300001052601	1
0	1661	16.399167719268	0
0	1664	16.400000672231	1
0	1665	16.400002122942	2
0	1668	16.499168789609	0
0	1670	16.500001487821	1
0	1672	16.599168154488	0
0	1676	16.600000382303	1
0	1677	16.600000902407	2
0	1678	16.600001807182	2
0	1682	16.699168473849	0
0	1687	16.700001540431	1
0	1688	16.700001551031	2
0	1689	16.700001692157	2
0	1690	16.700002122942	2
0	1695	16.799168789609	0
0	1698	16.800000767063	1
0	1699	16.800000902407	2
0	1702	16.899167569074	0
0	1705	16.900001540431	1
0	1706	16.900001915771	2
0	1709	16.999168582438	0
0	1711	17.000000429876	1
0	1713	17.099167096543	0
0	1717	17.100001415319	1
0	1718	17.100001487821	2
0	1719	17.100001692157	2
0	1723	17.199168358824	0
0	1726	17.300001005647	1
0	1727	17.300001415319	2
0	1730	17.399168081986	0
0	1736	17.400000848712	1
0	1737	17.400001052601	2
0	1738	17.400001692157	2
0	1739	17.400001748017	2
0	1740	17.400001915771	2
0	1746	17.499168582438	0
0	1753	17.500000382303	1
0	1754	17.500000429876	2
0	1755	17.500000670404	2
0	1756	17.500000672231	2
0	1757	17.500001091673	2
0	1758	17.500001495946	2
0	1765	17.599168162613	0
0	1768	17.600001748017	1
0	1769	17.600002122942	2
0	1772	17.699168789609	0
0	1780	17.700000429876	1
0	1781	17.700001005647	2
0	1782	17.700001415319	2
0	1783	17.700001495946	2
0	1784	17.700001540431	2
0	1785	17.700001692157	2
0	1786	17.700001915771	2
0	1794	17.799168582438	0
0	1799	17.800000672231	1
0	1800	17.800000848712	2
0	1801	17.800001487821	2
0	1802	17.800001551031	2
0	1807	17.899168217698	0
0	1809	17.900000670404	1
0	1811	17.999167337071	0
0	1814	18.000001091673	1
0	1815	18.000002122942	2
0	1818	18.099168789609	0
0	1822	18.100000429876	1
0	1823	18.100000670404	2
0	1824	18.100001415319	2
0	1828	18.199168081986	0
0	1832	18.200000672231	1
0	1833	18.200000848712	2
0	1834	18.200001487821	2
0	1838	18.299168154488	0
0	1841	18.300001091673	1
0	1842	18.300001540431	2
0	1845	18.399168207098	0
0	1851	18.400000429876	1
0	1852	18.400000672231	2
0	1853	18.400001052601	2
0	1854	18.400001487821	2
0	1855	18.400002122942	2
0	1861	18.499168789609	0
0	1863	18.500000848712	1
0	1865	18.599167515379	0
0	1870	18.600001052601	1
0	1871	18.600001692157	2
0	1872	18.600001807182	2
0	1873	18.600002122942	2
0	1878	18.699168789609	0
0	1883	18.700000672231	1
0	1884	18.700000848712	2
0	1885	18.700001551031	2
0	1886	18.700001748017	2
0	1891	18.799168414684	0
0	1894	18.800001692157	1
0	1895	18.800002122942	2
0	1898	18.899168789609	0
0	1901	18.900000429876	1
0	1902	18.900001052601	2
0	1905	18.999167719268	0
0	1910	19.000000767063	1
0	1911	19.000000848712	2
0	1912	19.000001415319	2
0	1913	19.000001495946	2
0	1918	19.099168162613	0
0	1921	19.100000902407	1
0	1922	19.100001091673	2
0	1925	19.19916775834	0
0	1928	19.200001692157	1
0	1929	19.200002122942	2
0	1932	19.299168789609	0
0	1935	19.300000902407	1
0	1936	19.300001487821	2
0	1939	19.399168154488	0
0	1945	19.400001091673	1
0	1946	19.400001415319	2
0	1947	19.400001551031	2
0	1948	19.400001748017	2
0	1949	19.400002122942	2
0	1955	19.499168789609	0
0	1960	19.500000902407	1
0	1961	19.500001052601	2
0	1962	19.500001692157	2
0	1963	19.500001915771	2
0	1968	19.599168582438	0
0	1971	19.600000382303	1
0	1972	19.600000670404	2
0	1975	19.699167337071	0
0	1981	19.700000429876	1
0	1982	19.700000672231	2
0	1983	19.700001005647	2
0	1984	19.700001091673	2
0	1985	19.700001551031	2
0	1991	19.799168217698	0
0	1994	19.800000848712	1
0	1995	19.800001807182	2
0	1998	19.899168473849	0
0	2005	19.900000902407	1
0	2006	19.900001091673	2
0	2007	19.900001415319	2
0	2008	19.900001487821	2
0	2009	19.900001748017	2
0	2010	19.900002122942	2
0	2017	19.999168789609	0
0	2023	20.000000767063	1
0	2024	20.000001005647	2
0	2025	20.000001052601	2
0	2026	20.000001540431	2
0	2027	20.000001915771	2
0	2033	20.099168582438	0
0	2039	20.100000429876	1
0	2040	20.100000672231	2
0	2041	20.100001487821	2
0	2042	20.100001495946	2
0	2043	20.100001748017	2
0	2049	20.199168414684	0
0	2053	20.200000902407	1
0	2054	20.200001005647	2
0	2055	20.200001692157	2
0	2059	20.299168358824	0
0	2065	20.300000382303	1
0	2066	20.300000672231	2
0	2067	20.300001052601	2
0	2068	20.300001487821	2
0	2069	20.300001807182	2
0	2075	20.399168473849	0
0	2078	20.400001005647	1
0	2079	20.400001748017	2
0	2082	20.499168414684	0
0	2085	20.500001487821	1
0	2086	20.500001495946	2
0	2089	20.599168162613	0
0	2094	20.600000382303	1
0	2095	20.600000902407	2
0	2096	20.600001415319	2
0	2097	20.600002122942	2
0	2102	20.699168789609	0
0	2109	20.700000429876	1
0	2110	20.700000670404	2
0	2111	20.700000848712	2
0	2112	20.700001487821	2
0	2113	20.700001551031	2
0	2114	20.700001915771	2
0	2121	20.799168582438	0
0	2124	20.800001052601	1
0	2125	20.800001091673	2
0	2128	20.89916775834	0
0	2132	20.900000382303	1
0	2133	20.900000429876	2
0	2134	20.900000767063	2
0	2138	20.99916743373	0
0	2141	21.000001052601	1
0	2142	21.000001495946	2
0	2145	21.099168162613	0
0	2150	21.100000848712	1
0	2151	21.100001415319	2
0	2152	21.100001540431	2
0	2153	21.100002122942	2
0	2158	21.199168789609	0
0	2163	21.200000670404	1
0	2164	21.200001052601	2
0	2165	21.200001748017	2
0	2166	21.200001807182	2
0	2171	21.299168473849	0
0	2176	21.300000382303	1
0	2177	21.300001091673	2
0	2178	21.300001415319	2
0	2179	21.300001551031	2
0	2184	21.399168217698	0
0	2188	21.400000670404	1
0	2189	21.400001005647	2
0	2190	21.400001487821	2
0	2194	21.499168154488	0
0	2202	21.500000429876	1
0	2203	21.500001052601	2
0	2204	21.500001091673	2
0	2205	21.500001415319	2
0	2206	21.500001495946	2
0	2207	21.500001692157	2
0	2208	21.500001807182	2
0	2216	21.599168473849	0
0	2219	21.600001487821	1
0	2220	21.600001540431	2
0	2223	21.699168207098	0
0	2230	21.700000672231	1
0	2231	21.700001005647	2
0	2232	21.700001415319	2
0	2233	21.700001495946	2
0	2234	21.700001551031	2
0	2235	21.700001748017	2
0	2242	21.799168414684	0
0	2247	21.800000767063	1
0	2248	21.800000848712	2
0	2249	21.800000902407	2
0	2250	21.800002122942	2
0	2255	21.899168789609	0
0	2257	21.900001005647	1
0	2259	21.999167672314	0
0	2262	22.000000429876	1
0	2263	22.000001807182	2
0	2266	22.099168473849	0
0	2271	22.100001415319	1
0	2272	22.100001540431	2
0	2273	22.100001551031	2
0	2274	22.100001692157	2
0	2279	22.199168358824	0
0	2281	22.200001005647	1
0	2283	22.299167672314	0
0	2286	22.300000767063	1
0	2287	22.300001692157	2
0	2290	22.399168358824	0
0	2293	22.400000848712	1
0	2294	22.400001415319	2
0	2297	22.499168081986	0
0	2303	22.500000672231	1
0	2304	22.500000767063	2
0	2305	22.500000902407	2
0	2306	22.500001692157	2
0	2307	22.500001915771	2
0	2313	22.599168582438	0
0	2316	22.600001487821	1
0	2317	22.600002122942	2
0	2320	22.699168789609	0
0	2324	22.700000670404	1
0	2325	22.700001091673	2
0	2326	22.700001415319	2
0	2330	22.799168081986	0
0	2334	22.800000429876	1
0	2335	22.800000672231	2
0	2336	22.800001540431	2
0	2340	22.899168207098	0
0	2346	22.900001052601	1
0	2347	22.900001415319	2
0	2348	22.900001551031	2
0	2349	22.900001748017	2
0	2350	22.900001807182	2
0	2356	22.999168473849	0
0	2361	23.000000382303	1
0	2362	23.000000767063	2
0	2363	23.000000902407	2
0	2364	23.000001495946	2
0	2369	23.099168162613	0
0	2373	23.100001005647	1
0	2374	23.100001692157	2
0	2375	23.100001807182	2
0	2379	23.199168473849	0
0	2384	23.200000767063	1
0	2385	23.200000902407	2
0	2386	23.200001091673	2
0	2387	23.200001495946	2
0	2392	23.299168162613	0
0	2395	23.300000670404	1
0	2396	23.300000848712	2
0	2399	23.399167515379	0
0	2403	23.400000672231	1
0	2404	23.400001495946	2
0	2405	23.400001540431	2
0	2409	23.499168207098	0
0	2411	23.500001807182	1
0	2413	23.599168473849	0
0	2416	23.600000670404	1
0	2417	23.600000767063	2
0	2420	23.69916743373	0
0	2425	23.700000848712	1
0	2426	23.700001005647	2
0	2427	23.700001807182	2
0	2428	23.700002122942	2
0	2433	23.799168789609	0
0	2435	23.800001692157	1
0	2437	23.899168358824	0
0	2441	23.900000767063	1
0	2442	23.900001748017	2
0	2443	23.900002122942	2
0	2447	23.999168789609	0
0	2450	24.000000382303	1
0	2451	24.000001052601	2
0	2454	24.099167719268	0
0	2459	24.100000848712	1
0	2460	24.100001005647	2
0	2461	24.100001748017	2
0	2462	24.100001807182	2
0	2467	24.199168473849	0
0	2474	24.200001495946	1
0	2475	24.200001540431	2
0	2476	24.200001551031	2
0	2477	24.200001692157	2
0	2478	24.200001915771	2
0	2479	24.200002122942	2
0	2486	24.299168789609	0
0	2489	24.300001487821	1
0	2490	24.300001748017	2
0	2493	24.399168414684	0
0	2498	24.400000382303	1
0	2499	24.400000767063	2
0	2500	24.400001540431	2
0	2501	24.400001692157	2
0	2506	24.499168358824	0
0	2510	24.500000429876	1
0	2511	24.500000672231	2
0	2512	24.500001487821	2
0	2516	24.599168154488	0
0	2520	24.600000767063	1
0	2521	24.600001005647	2
0	2522	24.600001748017	2
0	2526	24.699168414684	0
0	2532	24.700000382303	1
0	2533	24.700000672231	2
0	2534	24.700000902407	2
0	2535	24.700001540431	2
0	2536	24.700002122942	2
0	2542	24.799168789609	0
0	2547	24.800001005647	1
0	2548	24.800001091673	2
0	2549	24.800001807182	2
0	2550	24.800001915771	2
0	2555	24.899168582438	0
0	2558	24.900000672231	1
0	2559	24.900002122942	2
0	2562	24.999168789609	0
0	2567	25.000000767063	1
0	2568	25.000001487821	2
0	2569	25.000001540431	2
0	2570	25.000001692157	2
0	2575	25.099168358824	0
0	2581	25.100001052601	1
0	2582	25.100001091673	2
0	2583	25.100001748017	2
0	2584	25.100001915771	2
0	2585	25.100002122942	2
0	2591	25.199168789609	0